LAMMPS data file via write_data, version 11 Nov 2013-ICMS, timestep = 0

8 atoms
2 atom types

0.0000000000000000e+00 2.6000000000000001e+00 xlo xhi
0.0000000000000000e+00 2.6000000000000001e+00 ylo yhi
0.0000000000000000e+00 2.6000000000000001e+00 zlo zhi
0.0000000000000000e+00 0.0000000000000000e+00 0.0000000000000000e+00 xy xz yz

Masses

1 1e-20
2 1e-20

Atoms # charge

1 1 1.0000000000000000e+00 0.0000000000000000e+00 0.0000000000000000e+00 0.0000000000000000e+00 0 0 0
2 1 1.0000000000000000e+00 0.0000000000000000e+00 1.3000000000000000e+00 1.3000000000000000e+00 0 0 0
3 1 1.0000000000000000e+00 1.3000000000000000e+00 0.0000000000000000e+00 1.3000000000000000e+00 0 0 0
4 1 1.0000000000000000e+00 1.3000000000000000e+00 1.3000000000000000e+00 0.0000000000000000e+00 0 0 0
5 2 -1.0000000000000000e+00 0.0000000000000000e+00 0.0000000000000000e+00 1.3000000000000000e+00 0 0 0
6 2 -1.0000000000000000e+00 0.0000000000000000e+00 1.3000000000000000e+00 0.0000000000000000e+00 0 0 0
7 2 -1.0000000000000000e+00 1.3000000000000000e+00 0.0000000000000000e+00 0.0000000000000000e+00 0 0 0
8 2 -1.0000000000000000e+00 1.3000000000000000e+00 1.3000000000000000e+00 1.3000000000000000e+00 0 0 0

Velocities

1 0.0000000000000000e+00 0.0000000000000000e+00 0.0000000000000000e+00
2 0.0000000000000000e+00 0.0000000000000000e+00 0.0000000000000000e+00
3 0.0000000000000000e+00 0.0000000000000000e+00 0.0000000000000000e+00
4 0.0000000000000000e+00 0.0000000000000000e+00 0.0000000000000000e+00
5 0.0000000000000000e+00 0.0000000000000000e+00 0.0000000000000000e+00
6 0.0000000000000000e+00 0.0000000000000000e+00 0.0000000000000000e+00
7 0.0000000000000000e+00 0.0000000000000000e+00 0.0000000000000000e+00
8 0.0000000000000000e+00 0.0000000000000000e+00 0.0000000000000000e+00
