b2o3crystal.in

8 atoms

2 atom types

0 2.6 xlo xhi
0 2.6 ylo yhi
0 2.6 zlo zhi
0 0 0 xy xz yz

Atoms

1  1   1  0.0  0.0  0.0
2  1   1  0.0  1.3  1.3
3  1   1  1.3  0.0  1.3
4  1   1  1.3  1.3  0.0
5  2  -1  0.0  0.0  1.3
6  2  -1  0.0  1.3  0.0
7  2  -1  1.3  0.0  0.0
8  2  -1  1.3  1.3  1.3

