silicon.out

64 atoms
72 bonds
158 angles
0 dihedrals
0 impropers

1 atom types
1 bond types
1 angle types
0 dihedral types
0 improper types

0 10.862 xlo xhi
0 10.862 ylo yhi
0 10.862 zlo zhi
0 0 0 xy xz yz

Atoms

1 1 1 0 0 0
2 1 1 0 2.7155 2.7155
3 1 1 2.7155 2.7155 0
4 1 1 2.7155 0 2.7155
5 1 1 4.07325 1.35775 4.07325
6 1 1 1.35775 1.35775 1.35775
7 1 1 1.35775 4.07325 4.07325
8 1 1 4.07325 4.07325 1.35775
9 1 1 0 0 5.431
10 1 1 0 2.7155 8.1465
11 1 1 2.7155 2.7155 5.431
12 1 1 2.7155 0 8.1465
13 1 1 4.07325 1.35775 9.50425
14 1 1 1.35775 1.35775 6.78875
15 1 1 1.35775 4.07325 9.50425
16 1 1 4.07325 4.07325 6.78875
17 1 1 0 5.431 0
18 1 1 0 8.1465 2.7155
19 1 1 2.7155 8.1465 0
20 1 1 2.7155 5.431 2.7155
21 1 1 4.07325 6.78875 4.07325
22 1 1 1.35775 6.78875 1.35775
23 1 1 1.35775 9.50425 4.07325
24 1 1 4.07325 9.50425 1.35775
25 1 1 0 5.431 5.431
26 1 1 0 8.1465 8.1465
27 1 1 2.7155 8.1465 5.431
28 1 1 2.7155 5.431 8.1465
29 1 1 4.07325 6.78875 9.50425
30 1 1 1.35775 6.78875 6.78875
31 1 1 1.35775 9.50425 9.50425
32 1 1 4.07325 9.50425 6.78875
33 1 1 5.431 0 0
34 1 1 5.431 2.7155 2.7155
35 1 1 8.1465 2.7155 0
36 1 1 8.1465 0 2.7155
37 1 1 9.50425 1.35775 4.07325
38 1 1 6.78875 1.35775 1.35775
39 1 1 6.78875 4.07325 4.07325
40 1 1 9.50425 4.07325 1.35775
41 1 1 5.431 0 5.431
42 1 1 5.431 2.7155 8.1465
43 1 1 8.1465 2.7155 5.431
44 1 1 8.1465 0 8.1465
45 1 1 9.50425 1.35775 9.50425
46 1 1 6.78875 1.35775 6.78875
47 1 1 6.78875 4.07325 9.50425
48 1 1 9.50425 4.07325 6.78875
49 1 1 5.431 5.431 0
50 1 1 5.431 8.1465 2.7155
51 1 1 8.1465 8.1465 0
52 1 1 8.1465 5.431 2.7155
53 1 1 9.50425 6.78875 4.07325
54 1 1 6.78875 6.78875 1.35775
55 1 1 6.78875 9.50425 4.07325
56 1 1 9.50425 9.50425 1.35775
57 1 1 5.431 5.431 5.431
58 1 1 5.431 8.1465 8.1465
59 1 1 8.1465 8.1465 5.431
60 1 1 8.1465 5.431 8.1465
61 1 1 9.50425 6.78875 9.50425
62 1 1 6.78875 6.78875 6.78875
63 1 1 6.78875 9.50425 9.50425
64 1 1 9.50425 9.50425 6.78875

Bonds

1 1 1 6
2 1 1 31
3 1 3 6
4 1 3 8
5 1 3 13
6 1 3 15
7 1 7 11
8 1 7 25
9 1 8 34
10 1 8 49
11 1 9 14
12 1 9 23
13 1 9 37
14 1 9 64
15 1 10 14
16 1 10 15
17 1 10 48
18 1 11 14
19 1 11 16
20 1 12 13
21 1 12 14
22 1 12 31
23 1 13 33
24 1 15 28
25 1 16 28
26 1 16 57
27 1 18 23
28 1 18 53
29 1 19 24
30 1 19 31
31 1 21 27
32 1 21 50
33 1 21 57
34 1 23 27
35 1 24 33
36 1 24 50
37 1 25 30
38 1 25 48
39 1 25 53
40 1 26 30
41 1 26 31
42 1 26 61
43 1 26 64
44 1 27 30
45 1 28 30
46 1 33 38
47 1 33 63
48 1 34 38
49 1 35 38
50 1 35 40
51 1 36 37
52 1 36 38
53 1 36 55
54 1 40 52
55 1 41 46
56 1 41 55
57 1 44 46
58 1 44 63
59 1 44 64
60 1 48 60
61 1 49 54
62 1 50 54
63 1 50 55
64 1 52 53
65 1 52 54
66 1 53 59
67 1 55 59
68 1 57 62
69 1 59 62
70 1 59 64
71 1 60 61
72 1 60 62

Angles

1 1 6 1 31
2 1 1 6 3
3 1 1 31 12
4 1 1 31 19
5 1 1 31 26
6 1 6 3 8
7 1 6 3 13
8 1 6 3 15
9 1 8 3 13
10 1 8 3 15
11 1 3 8 34
12 1 3 8 49
13 1 13 3 15
14 1 3 13 12
15 1 3 13 33
16 1 3 15 10
17 1 3 15 28
18 1 11 7 25
19 1 7 11 14
20 1 7 11 16
21 1 7 25 30
22 1 7 25 48
23 1 7 25 53
24 1 34 8 49
25 1 8 34 38
26 1 8 49 54
27 1 14 9 23
28 1 14 9 37
29 1 14 9 64
30 1 9 14 10
31 1 9 14 11
32 1 9 14 12
33 1 23 9 37
34 1 23 9 64
35 1 9 23 18
36 1 9 23 27
37 1 37 9 64
38 1 9 37 36
39 1 9 64 26
40 1 9 64 44
41 1 9 64 59
42 1 14 10 15
43 1 14 10 48
44 1 10 14 11
45 1 10 14 12
46 1 15 10 48
47 1 10 15 28
48 1 10 48 25
49 1 10 48 60
50 1 14 11 16
51 1 11 14 12
52 1 11 16 28
53 1 11 16 57
54 1 13 12 14
55 1 13 12 31
56 1 12 13 33
57 1 14 12 31
58 1 12 31 19
59 1 12 31 26
60 1 13 33 24
61 1 13 33 38
62 1 13 33 63
63 1 15 28 16
64 1 15 28 30
65 1 28 16 57
66 1 16 28 30
67 1 16 57 21
68 1 16 57 62
69 1 23 18 53
70 1 18 23 27
71 1 18 53 25
72 1 18 53 52
73 1 18 53 59
74 1 24 19 31
75 1 19 24 33
76 1 19 24 50
77 1 19 31 26
78 1 27 21 50
79 1 27 21 57
80 1 21 27 23
81 1 21 27 30
82 1 50 21 57
83 1 21 50 24
84 1 21 50 54
85 1 21 50 55
86 1 21 57 62
87 1 23 27 30
88 1 33 24 50
89 1 24 33 38
90 1 24 33 63
91 1 24 50 54
92 1 24 50 55
93 1 30 25 48
94 1 30 25 53
95 1 25 30 26
96 1 25 30 27
97 1 25 30 28
98 1 48 25 53
99 1 25 48 60
100 1 25 53 52
101 1 25 53 59
102 1 30 26 31
103 1 30 26 61
104 1 30 26 64
105 1 26 30 27
106 1 26 30 28
107 1 31 26 61
108 1 31 26 64
109 1 61 26 64
110 1 26 61 60
111 1 26 64 44
112 1 26 64 59
113 1 27 30 28
114 1 38 33 63
115 1 33 38 34
116 1 33 38 35
117 1 33 38 36
118 1 33 63 44
119 1 34 38 35
120 1 34 38 36
121 1 38 35 40
122 1 35 38 36
123 1 35 40 52
124 1 37 36 38
125 1 37 36 55
126 1 38 36 55
127 1 36 55 41
128 1 36 55 50
129 1 36 55 59
130 1 40 52 53
131 1 40 52 54
132 1 46 41 55
133 1 41 46 44
134 1 41 55 50
135 1 41 55 59
136 1 46 44 63
137 1 46 44 64
138 1 63 44 64
139 1 44 64 59
140 1 48 60 61
141 1 48 60 62
142 1 49 54 50
143 1 49 54 52
144 1 54 50 55
145 1 50 54 52
146 1 50 55 59
147 1 53 52 54
148 1 52 53 59
149 1 53 59 55
150 1 53 59 62
151 1 53 59 64
152 1 55 59 62
153 1 55 59 64
154 1 57 62 59
155 1 57 62 60
156 1 62 59 64
157 1 59 62 60
158 1 61 60 62
